 Gaussian 16, Revision A.03,
 Gaussian 16:  EM64L-G16RevA.03 25-Dec-2016

 ----------------------------------------------------------------------
 #p m062x/cc-pVTZ opt=(calcfc,maxcycles=900) freq IOP(7/33=1,2/16=3) sc
 f=(maxcycle=900)
 ----------------------------------------------------------------------

 ------------------------------
 Gaussian input prepared by ASE
 ------------------------------
 Symbolic Z-matrix:
 Charge =  0 Multiplicity = 2

 SCF Done:  E(UM062X) =  -150.903682124     A.U. after   16 cycles
 SCF Done:  E(UM062X) =  -150.904165919     A.U. after   12 cycles
 SCF Done:  E(UM062X) =  -150.904167707     A.U. after    9 cycles
 Optimization completed.
    -- Stationary point found.
 Normal termination of Gaussian 16 at Wed May 22 09:04:35 2019.

 ----------------------------------------------------------------------
 #P Geom=AllCheck Guess=TCheck SCRF=Check Test GenChk UM062X/CC-pVTZ Fr
 eq
 ----------------------------------------------------------------------

 Structure from the checkpoint file:  "/scratch/harms.n/gauss_scrdir/Gau-32215.chk"
 ------------------------------
 Gaussian input prepared by ASE
 ------------------------------
 Charge =  0 Multiplicity = 2

                         Standard orientation:
 ---------------------------------------------------------------------
 Center     Atomic      Atomic             Coordinates (Angstroms)
 Number     Number       Type             X           Y           Z
 ---------------------------------------------------------------------
      1          8           0        0.055051   -0.600474    0.000000
      2          8           0        0.055051    0.708361   -0.000000
      3          1           0       -0.880822   -0.863100    0.000000
 ---------------------------------------------------------------------

 SCF Done:  E(UM062X) =  -150.904167707     A.U. after    1 cycles

 The electronic state is 2-A".
 Alpha  occ. eigenvalues --  -19.75168 -19.71167  -1.34648  -0.99213  -0.65896
 Alpha  occ. eigenvalues --   -0.59964  -0.57432  -0.38833  -0.38706
 Alpha virt. eigenvalues --    0.04946   0.18682   0.40534   0.53587   0.57052
 Alpha virt. eigenvalues --    0.57061   0.61981   0.67789   0.68141   0.73578
 Alpha virt. eigenvalues --    0.80754   0.94407   1.14562   1.30941   1.35926

  Beta  occ. eigenvalues --  -19.74429 -19.69656  -1.31342  -0.94331  -0.63978
  Beta  occ. eigenvalues --   -0.55097  -0.49834  -0.35953
  Beta virt. eigenvalues --   -0.06189   0.05222   0.20639   0.40709   0.53737
  Beta virt. eigenvalues --    0.57528   0.59137   0.62419   0.68355   0.70563
  Beta virt. eigenvalues --    0.73943   0.80908   0.95506   1.15228   1.33717

 Mulliken charges and spin densities:
               1          2
     1  O   -0.109904   0.254907
     2  O   -0.152954   0.756022
     3  H    0.262858  -0.010929
 Sum of Mulliken charges =  -0.00000   1.00000

 Dipole moment (field-independent basis, Debye):
    X=             -1.7442    Y=             -1.4142    Z=              0.0000  Tot=              2.2455
 Quadrupole moment (field-independent basis, Debye-Ang):
   XX=             -9.7763   YY=            -10.8634   ZZ=            -10.8703
   XY=              1.6587   XZ=             -0.0000   YZ=              0.0000

  Exact polarizability:   8.173   1.576  15.667   0.000   0.000   6.007
 Approx polarizability:   9.027   1.414  18.310  -0.000  -0.000   6.721

                      1                      2                      3
                     A'                     A'                     A'
 Frequencies --   1255.5926              1460.1549              3698.8500
 Red. masses --     11.5318                 1.1508                 1.0681
 Frc consts  --     10.7114                 1.4456                 8.6100
 IR Inten    --     44.4493                43.1039                46.6942

 - Thermochemistry -
 -------------------
 Temperature   298.150 Kelvin.  Pressure   1.00000 Atm.
 Atom     1 has atomic number  8 and mass  15.99491

 Molecular mass:    32.99765 amu.
 Principal axes and moments of inertia in atomic units:
                           1         2         3
     Eigenvalues --     2.87290  52.04099  54.91389
           X            0.06102   0.99814   0.00000
           Y            0.99814  -0.06102   0.00000
           Z           -0.00000  -0.00000   1.00000
 This molecule is an asymmetric top.
 Rotational symmetry number  1.
 Rotational temperatures (Kelvin)     30.14863     1.66434     1.57727
 Rotational constants (GHZ):         628.19547    34.67922    32.86493
 Zero-point vibrational energy      38367.8 (Joules/Mol)
                                    9.17013 (Kcal/Mol)
 Vibrational temperatures:   1806.52  2100.84  5321.82
          (Kelvin)

 Zero-point correction=                           0.014614 (Hartree/Particle)
 Thermal correction to Energy=                    0.017465
 Thermal correction to Enthalpy=                  0.018409
 Thermal correction to Gibbs Free Energy=        -0.007531
 Sum of electronic and zero-point Energies=           -150.889554
 Sum of electronic and thermal Energies=              -150.886702
 Sum of electronic and thermal Enthalpies=            -150.885758
 Sum of electronic and thermal Free Energies=         -150.911698

                     E (Thermal)             CV                S
                      KCal/Mol        Cal/Mol-Kelvin    Cal/Mol-Kelvin
 Total                   10.960              6.219             54.596
 Electronic               0.000              0.000              1.377
 Translational            0.889              2.981             36.413
 Rotational               0.889              2.981             16.758
 Vibrational              9.182              0.257              0.047

 Optimization completed.
    -- Stationary point found.
 Normal termination of Gaussian 16 at Wed May 22 09:04:47 2019.
